 Q-Chem 5.0, Q-Chem, Inc., Pleasanton, CA (2017)
 Q-Chem 5.0.1 for Intel X86 EM64T Linux

User input:
--------------------------------------------------------------
$rem
MEM_STATIC                    256
MAX_SCF_CYCLES                500
BASIS                         6-31+g*
THRESH                        14
MEM_TOTAL                     4096
UNRESTRICTED                  true
METHOD                        tpssh
JOBTYPE                       opt
$end

$molecule
0 3
C    -1.58536    2.70107    0.00790
C    -2.17646    1.44499    0.01119
B    -1.47707    0.24588    0.01013
N    -0.22430    2.93781    0.00314
B    -0.10731    4.31540    0.00133
C    -1.40268    4.94267    0.00496
C    -2.32411    3.93621    0.00908
H    -1.56900    6.01289    0.00440
H    -3.40484    4.00766    0.01261
C    -2.10434    -1.04949    0.01356
C    -1.09788    -1.97093    0.01119
C    0.13726    -1.23218    0.00635
H    -3.17455    -1.21581    0.01727
H    -1.16932    -3.05166    0.01255
N    -0.09964    0.12903    0.00571
C    1.39333    -1.82329    0.00284
B    2.59243    -1.12390    -0.00181
N    2.70874    0.25295    -0.00362
C    3.88780    -1.75117    -0.00542
C    4.80923    -0.74471    -0.00954
C    4.07048    0.49043    -0.00838
C    4.66158    1.74651    -0.01170
B    3.96219    2.94562    -0.01066
N    2.58520    3.06207    -0.00623
C    2.34786    4.42368    -0.00688
C    3.58300    5.16243    -0.01174
C    4.58946    4.24099    -0.01411
H    3.65444    6.24316    -0.01311
H    5.65967    4.40731    -0.01783
C    1.09179    5.01479    -0.00334
Cr    1.24280    1.59688    -0.00025
H    1.04631    6.04579    -0.00424
H    5.69257    1.79199    -0.01518
H    1.43881    -2.85429    0.00375
H    -3.20745    1.39951    0.01467
H    5.83595    -0.84892    -0.01284
H    4.08195    -2.76474    -0.00498
$end

--------------------------------------------------------------

   86   -1979.8846671368      2.52E-09 Convergence criterion met
 Total energy in the final basis set = -1979.88466714
   23   -1979.9642400294      8.71E-09 Convergence criterion met
 Total energy in the final basis set = -1979.96424003
   22   -1980.0074774688      6.55E-09 Convergence criterion met
 Total energy in the final basis set = -1980.00747747
  195   -1980.0221548268      9.78E-09 Convergence criterion met
 Total energy in the final basis set = -1980.02215483
   19   -1980.0229290456      9.73E-09 Convergence criterion met
 Total energy in the final basis set = -1980.02292905
   18   -1980.0229567516      4.95E-09 Convergence criterion met
 Total energy in the final basis set = -1980.02295675
   17   -1980.0229622124      7.45E-09 Convergence criterion met
 Total energy in the final basis set = -1980.02296221
   16   -1980.0229631110      6.35E-09 Convergence criterion met
 Total energy in the final basis set = -1980.02296311
 Final energy is   -1980.02296311097
 **  OPTIMIZATION CONVERGED  **

                    Orbital Energies (a.u.)
 --------------------------------------------------------------

 Alpha MOs
 -- Occupied --
******* -24.661 -20.930 -20.928 -20.923 -14.268 -14.268 -14.251
-14.251 -10.181 -10.181 -10.177 -10.177 -10.143 -10.143 -10.134
-10.134 -10.118 -10.118 -10.117 -10.117 -10.113 -10.113 -10.111
-10.111  -6.683  -6.683  -6.677  -6.677  -2.939  -1.892  -1.888
 -1.882  -0.892  -0.886  -0.883  -0.879  -0.746  -0.743  -0.737
 -0.737  -0.728  -0.716  -0.711  -0.698  -0.601  -0.582  -0.576
 -0.560  -0.517  -0.516  -0.514  -0.508  -0.493  -0.488  -0.485
 -0.480  -0.468  -0.438  -0.437  -0.410  -0.391  -0.389  -0.389
 -0.385  -0.381  -0.378  -0.374  -0.371  -0.355  -0.350  -0.348
 -0.347  -0.337  -0.329  -0.310  -0.309  -0.302  -0.293  -0.283
 -0.276  -0.272  -0.263  -0.261  -0.252  -0.249  -0.246  -0.239
 -0.233  -0.229  -0.201

 Beta MOs
 -- Occupied --
******* -24.617 -20.898 -20.886 -20.884 -14.273 -14.273 -14.254
-14.254 -10.180 -10.180 -10.176 -10.176 -10.143 -10.143 -10.134
-10.134 -10.121 -10.121 -10.117 -10.117 -10.116 -10.116 -10.111
-10.111  -6.682  -6.682  -6.676  -6.676  -2.805  -1.767  -1.741
 -1.735  -0.897  -0.891  -0.885  -0.882  -0.750  -0.747  -0.740
 -0.739  -0.733  -0.723  -0.717  -0.705  -0.603  -0.584  -0.578
 -0.561  -0.518  -0.518  -0.514  -0.508  -0.493  -0.489  -0.486
 -0.481  -0.468  -0.440  -0.438  -0.411  -0.391  -0.390  -0.390
 -0.387  -0.386  -0.383  -0.377  -0.375  -0.362  -0.351  -0.349
 -0.343  -0.331  -0.324  -0.312  -0.310  -0.297  -0.294  -0.285
 -0.278  -0.275  -0.262  -0.258  -0.253  -0.245  -0.241  -0.236
 -0.202

          Ground-State Mulliken Net Atomic Charges

     Atom                 Charge (a.u.)    Spin (a.u.)
  --------------------------------------------------------
      1 C                     1.085432       0.128904
      2 C                    -1.085188      -0.281524
      3 B                     0.704650       0.049253
      4 N                    -0.485028      -0.267855
      5 B                     0.733572       0.023408
      6 C                    -0.151580       0.012947
      7 C                    -0.906268      -0.084391
      8 H                     0.197861       0.000148
      9 H                     0.200531       0.000988
     10 C                    -0.174070      -0.010201
     11 C                    -0.930183      -0.007358
     12 C                     1.099820       0.037720
     13 H                     0.193892       0.000321
     14 H                     0.197156      -0.001392
     15 N                    -0.479825      -0.195988
     16 C                    -1.095643      -0.225054
     17 B                     0.733582       0.023431
     18 N                    -0.485047      -0.267885
     19 C                    -0.151580       0.012973
     20 C                    -0.906265      -0.084428
     21 C                     1.085568       0.128910
     22 C                    -1.085300      -0.281513
     23 B                     0.704640       0.049264
     24 N                    -0.479839      -0.195857
     25 C                     1.099872       0.037634
     26 C                    -0.930184      -0.007360
     27 C                    -0.174099      -0.010224
     28 H                     0.197158      -0.001392
     29 H                     0.193892       0.000322
     30 C                    -1.095722      -0.224790
     31 Cr                    1.006393       3.579532
     32 H                     0.195898       0.014228
     33 H                     0.195807       0.015929
     34 H                     0.195898       0.014239
     35 H                     0.195808       0.015928
     36 H                     0.200528       0.000989
     37 H                     0.197862       0.000146
  --------------------------------------------------------
  Sum of atomic charges =     0.000000

                    Cartesian Multipole Moments
 -----------------------------------------------------------------
    Charge (ESU x 10^10)
                -0.0000
    Dipole Moment (Debye)
         X      -0.0002      Y      -0.0000      Z       0.0000
       Tot       0.0002
    Quadrupole Moments (Debye-Ang)
        XX    -134.8138     XY      -2.9976     YY    -137.5797
        XZ      -0.0711     YZ      -0.0107     ZZ    -157.2970

 Total job time:  41174.37s(wall), 80564.68s(cpu)
        *  Thank you very much for using Q-Chem.  Have a nice day.  *

User input: 2 of 2

h07.ulysses.mit.edu 127.0.1
Q-Chem Developer Version! Running on 127.0.1.*
                  Welcome to Q-Chem
     A Quantum Leap Into The Future Of Chemistry

 Q-Chem 5.0, Q-Chem, Inc., Pleasanton, CA (2017)

 Yihan Shao,  Zhengting Gan,  E. Epifanovsky,  A. T. B. Gilbert,  M. Wormit,
 J. Kussmann,  A. W. Lange,  A. Behn,  Jia Deng,  Xintian Feng,  D. Ghosh,
 M. Goldey,  P. R. Horn,  L. D. Jacobson,  I. Kaliman,  T. Kus,  A. Landau,
 Jie Liu,  E. I. Proynov,  R. M. Richard,  R. P. Steele,  E. J. Sundstrom,
 H. L. Woodcock III,  P. M. Zimmerman,  D. Zuev,  B. Albrecht,  E. Alguire,
 S. A. Baeppler,  Z. Benda,  Y. A. Bernard,  E. J. Berquist,  K. B. Bravaya,
 D. Casanova,  Chun-Min Chang,  Yunqing Chen,  A. Chien,  K. D. Closser,
 M. P. Coons,  S. Dasgupta,  M. Diedenhofen,  Hainam Do,  R. G. Edgar,
 Po-Tung Fang,  S. Fatehi,  Qingguo Feng,  Qinghui Ge,  A. Ghysels,
 J. Gomes,  J. Gonthier,  A. Gunina,  M. W. D. Hanson-Heine,
 P. H. P. Harbach,  A. W. Hauser,  J. E. Herr,  E. G. Hohenstein,
 Z. C. Holden,  Kerwin Hui,  T.-C. Jagau,  Hyunjun Ji,  B. Kaduk,
 K. Khistyaev,  Jaehoon Kim,  P. Klunzinger,  K. Koh,  D. Kosenkov,
 T. Kowalczyk,  C. M. Krauter,  A. Kunitsa,  Ka Un Lao,  A. Laurent,
 K. V. Lawler,  Joonho Lee,  D. Lefrancois,  S. Lehtola,  D. S. Levine,
 Yi-Pei Li,  You-Sheng Lin,  Fenglai Liu,  E. Livshits,  A. Luenser,
 P. Manohar,  E. Mansoor,  S. F. Manzer,  Shan-Ping Mao,  Yuezhi Mao,
 N. Mardirossian,  A. V. Marenich,  L. A. Martinez-Martinez,  S. A. Maurer,
 N. J. Mayhall,  S. C. McKenzie,  J.-M. Mewes,  A. F. Morrison,  K. Nanda,
 T. S. Nguyen-Beck,  R. Olivares-Amaya,  J. A. Parkhill,  T. M. Perrine,
 F. Plasser,  S. Prager,  A. Prociuk,  D. R. Rehn,  F. Rob,  M. Schneider,
 N. Sergueev,  S. M. Sharada,  S. Sharma,  D. W. Small,  T. Stauch,
 T. Stein,  Yu-Chuan Su,  A. J. W. Thom,  T. Tsuchimochi,  L. Vogt,
 O. Vydrov,  M. A. Watson,  J. Wenzel,  M. de Wergifosse,  T. A. Wesolowski,
 A. White,  J. Witte,  A. Yamada,  Jun Yang,  K. Yao,  S. Yeganeh,
 S. R. Yost,  Zhi-Qiang You,  A. Zech,  Igor Ying Zhang,  Xing Zhang,
 Yan Zhao,  Ying Zhu,  B. R. Brooks,  G. K. L. Chan,  C. J. Cramer,
 M. S. Gordon,  W. J. Hehre,  A. Klamt,  M. W. Schmidt,  C. D. Sherrill,
 D. G. Truhlar,  A. Aspuru-Guzik,  R. Baer,  A. T. Bell,  N. A. Besley,
 Jeng-Da Chai,  A. Dreuw,  B. D. Dunietz,  T. R. Furlani,  Chao-Ping Hsu,
 Yousung Jung,  Jing Kong,  D. S. Lambrecht,  WanZhen Liang,  C. Ochsenfeld,
 V. A. Rassolov,  L. V. Slipchenko,  J. E. Subotnik,  T. Van Voorhis,
 J. M. Herbert,  A. I. Krylov,  P. M. W. Gill,  M. Head-Gordon

 Contributors to earlier versions of Q-Chem not listed above:
 R. D. Adamson,  B. Austin,  J. Baker,  G. J. O. Beran,  K. Brandhorst,
 S. T. Brown,  E. F. C. Byrd,  A. K. Chakraborty,  C.-L. Cheng,
 Siu Hung Chien,  D. M. Chipman,  D. L. Crittenden,  H. Dachsel,
 R. A. DiStasio Jr.,  R. J. Doerksen,  A. D. Dutoi,  L. Fusti-Molnar,
 W. A. Goddard III,  A. Golubeva-Zadorozhnaya,  S. R. Gwaltney,  G. Hawkins,
 A. Heyden,  S. Hirata,  G. Kedziora,  F. J. Keil,  C. Kelley,  Jihan Kim,
 R. A. King,  R. Z. Khaliullin,  P. P. Korambath,  W. Kurlancheek,
 A. M. Lee,  M. S. Lee,  S. V. Levchenko,  Ching Yeh Lin,  D. Liotard,
 R. C. Lochan,  I. Lotan,  P. E. Maslen,  N. Nair,  D. P. O'Neill,
 D. Neuhauser,  E. Neuscamman,  C. M. Oana,  R. Olson,  B. Peters,
 R. Peverati,  P. A. Pieniazek,  Y. M. Rhee,  J. Ritchie,  M. A. Rohrdanz,
 E. Rosta,  N. J. Russ,  H. F. Schaefer III,  N. E. Schultz,  N. Shenvi,
 A. C. Simmonett,  A. Sodt,  D. Stuck,  K. S. Thanthiriwatte,  V. Vanovschi,
 Tao Wang,  A. Warshel,  C. F. Williams,  Q. Wu,  X. Xu,  W. Zhang

 Please cite Q-Chem as follows:
 Y. Shao et al., Mol. Phys. 113, 184-215 (2015)
 DOI: 10.1080/00268976.2014.952696

 Q-Chem 5.0.1 for Intel X86 EM64T Linux

 Parts of Q-Chem use Armadillo 5.200.1 (Boston Tea Smuggler).
 http://arma.sourceforge.net/

 Q-Chem begins on Fri Jun 22 15:29:44 2018

Host:
0

     Scratch files written to /scratch/kjchen/qchem7136//
Processing $rem in /opt/qchem.20170918/config/preferences.
xc_grid     000075000302
max_scf_cycles  200
geom_opt_max_cycles 200
symmetry    false
sym_ignore  true
cc_symmetry false
The previous job contains 0 fragments, simply inherited here
Symmetry turned off for PCM/SM12/SMD calculation
Warning: disabling incdft.
Checking the input file for inconsistencies...  ...done.

--------------------------------------------------------------
User input:
--------------------------------------------------------------

$rem
MEM_STATIC                    256
MAX_SCF_CYCLES                500
BASIS                         6-31+g*
SOLVENT_METHOD                pcm
PRINT_ORBITALS                true
THRESH                        14
MEM_TOTAL                     4096
GUI=2
MOLDEN_FORMAT                 true
UNRESTRICTED                  true
METHOD                        tpssh
JOBTYPE                       sp
CHELPG                        true
$end

$molecule
read
$end

$pcm
theory cpcm
method swig
solver inversion
heavypoints 194
hpoints 194
radii bondi
vdwscale 1.2
$end

$solvent
dielectric 78.39
$end

$van_der_waals
1
28  1.63
26  1.96
$end

--------------------------------------------------------------

             Standard Nuclear Orientation (Angstroms)
    I     Atom           X                Y                Z
 ----------------------------------------------------------------
    1      C      -1.6485189716     2.7346158281     0.0080830621
    2      C      -2.3061335329     1.5233907379     0.0115151617
    3      B      -1.5988678462     0.1855760657     0.0105850588
    4      N      -0.2649401771     2.9268419289     0.0033337420
    5      B      -0.1142932243     4.4093559254     0.0012991576
    6      C      -1.5315451074     5.0542787005     0.0053095202
    7      C      -2.3877682936     4.0058969012     0.0092100395
    8      H      -1.8390302336     6.0962688817     0.0052556046
    9      H      -3.4756121904     4.0177791733     0.0127984125
   10      C      -2.2593201778    -1.2410990893     0.0142661481
   11      C      -1.2098168421    -2.0891098069     0.0117037333
   12      C       0.0572826556    -1.3199010752     0.0067191555
   13      H      -3.3008579546    -1.5510711353     0.0180077732
   14      H      -1.2074340418    -3.1768327743     0.0128448659
   15      N      -0.1465791334     0.0409117202     0.0059547462
   16      C       1.2869907071    -1.9534436527     0.0033223927
   17      B       2.5980125469    -1.2165820906    -0.0017602232
   18      N       2.7486060728     0.2659063728    -0.0038142452
   19      C       4.0152624236    -1.8615042970    -0.0057385868
   20      C       4.8714835284    -0.8131289739    -0.0096528418
   21      C       4.1322146134     0.4581571106    -0.0085597065
   22      C       4.7898269792     1.6693714532    -0.0120245693
   23      B       4.0825671789     3.0072146246    -0.0111235415
   24      N       2.6303189124     3.1518943569    -0.0064769929
   25      C       2.4264368526     4.5127388257    -0.0072423250
   26      C       3.6935353906     5.2819136898    -0.0122587244
   27      C       4.7430331947     4.4338862593    -0.0148341192
   28      H       3.6911766386     6.3696363357    -0.0134075400
   29      H       5.7845704563     4.7438604696    -0.0185964569
   30      C       1.1967209598     5.1462252606    -0.0038103667
   31      Cr      1.2419286363     1.5964872573    -0.0002499442
   32      H       1.2225567347     6.2358442272    -0.0050444519
   33      H       5.8784346028     1.6080137640    -0.0155620289
   34      H       1.2610972628    -3.0430609369     0.0045586469
   35      H      -3.3947401491     1.5847571982     0.0150544320
   36      H       5.9593199921    -0.8249444875    -0.0132328769
   37      H       4.3226215363    -2.9035147489    -0.0056621119
 ----------------------------------------------------------------
